M 0.00000 0 (663.00, 484.00, 0.00), (0.00, 0.00), 0.00
M 0.00000 8 (761.00, 234.00, 0.00), (335.00, 500.00), 5.00
M 0.00000 11 (825.00, 140.00, 0.00), (565.00, 420.00), 5.00
M 0.00000 17 (908.00, 344.00, 0.00), (765.00, 320.00), 5.00
M 1.00000 2 (791.00, 406.00, 0.00), (615.00, 340.00), 5.00
M 1.00000 3 (668.00, 393.00, 0.00), (680.00, 458.00), 5.00
M 1.00000 7 (671.00, 194.00, 0.00), (185.00, 120.00), 5.00
M 1.00000 12 (509.00, 34.00, 0.00), (700.00, 20.00), 5.00
M 1.00000 13 (687.00, 36.00, 0.00), (115.00, 85.00), 5.00
M 1.00000 14 (822.00, 51.00, 0.00), (195.00, 185.00), 5.00
M 1.00000 15 (373.00, 271.00, 0.00), (387.00, 590.00), 5.00
M 1.00000 18 (600.00, 180.00, 0.00), (109.00, 20.00), 5.00
M 1.00000 19 (455.00, 479.00, 0.00), (175.00, 185.00), 5.00
s 1.000000000 _16_ AGT  --- 0 cbr 1000 [0 0 0 0] ------- [16:0 10:0 32 0] [0] 0 0
r 1.000000000 _16_ RTR  --- 0 cbr 1000 [0 0 0 0] ------- [16:0 10:0 32 0] [0] 0 0
s 1.000000000 _16_ RTR  --- 0 AODV 48 [0 0 0 0] ------- [16:255 -1:255 30 0] [0x2 1 1 [10 0] [16 4]] (REQUEST)
s 1.000535000 _16_ MAC  --- 0 AODV 106 [0 ffffffff 10 800] ------- [16:255 -1:255 30 0] [0x2 1 1 [10 0] [16 4]] (REQUEST)
r 1.001383294 _17_ MAC  --- 0 AODV 48 [0 ffffffff 10 800] ------- [16:255 -1:255 30 0] [0x2 1 1 [10 0] [16 4]] (REQUEST)
r 1.001383456 _5_ MAC  --- 0 AODV 48 [0 ffffffff 10 800] ------- [16:255 -1:255 30 0] [0x2 1 1 [10 0] [16 4]] (REQUEST)
r 1.001383460 _11_ MAC  --- 0 AODV 48 [0 ffffffff 10 800] ------- [16:255 -1:255 30 0] [0x2 1 1 [10 0] [16 4]] (REQUEST)
r 1.001383491 _8_ MAC  --- 0 AODV 48 [0 ffffffff 10 800] ------- [16:255 -1:255 30 0] [0x2 1 1 [10 0] [16 4]] (REQUEST)
r 1.001383627 _2_ MAC  --- 0 AODV 48 [0 ffffffff 10 800] ------- [16:255 -1:255 30 0] [0x2 1 1 [10 0] [16 4]] (REQUEST)
r 1.001383732 _14_ MAC  --- 0 AODV 48 [0 ffffffff 10 800] ------- [16:255 -1:255 30 0] [0x2 1 1 [10 0] [16 4]] (REQUEST)
r 1.001383772 _10_ MAC  --- 0 AODV 48 [0 ffffffff 10 800] ------- [16:255 -1:255 30 0] [0x2 1 1 [10 0] [16 4]] (REQUEST)
r 1.001383800 _7_ MAC  --- 0 AODV 48 [0 ffffffff 10 800] ------- [16:255 -1:255 30 0] [0x2 1 1 [10 0] [16 4]] (REQUEST)
r 1.001408294 _17_ RTR  --- 0 AODV 48 [0 ffffffff 10 800] ------- [16:255 -1:255 30 0] [0x2 1 1 [10 0] [16 4]] (REQUEST)
r 1.001408456 _5_ RTR  --- 0 AODV 48 [0 ffffffff 10 800] ------- [16:255 -1:255 30 0] [0x2 1 1 [10 0] [16 4]] (REQUEST)
r 1.001408460 _11_ RTR  --- 0 AODV 48 [0 ffffffff 10 800] ------- [16:255 -1:255 30 0] [0x2 1 1 [10 0] [16 4]] (REQUEST)
r 1.001408491 _8_ RTR  --- 0 AODV 48 [0 ffffffff 10 800] ------- [16:255 -1:255 30 0] [0x2 1 1 [10 0] [16 4]] (REQUEST)
r 1.001408627 _2_ RTR  --- 0 AODV 48 [0 ffffffff 10 800] ------- [16:255 -1:255 30 0] [0x2 1 1 [10 0] [16 4]] (REQUEST)
r 1.001408732 _14_ RTR  --- 0 AODV 48 [0 ffffffff 10 800] ------- [16:255 -1:255 30 0] [0x2 1 1 [10 0] [16 4]] (REQUEST)
r 1.001408772 _10_ RTR  --- 0 AODV 48 [0 ffffffff 10 800] ------- [16:255 -1:255 30 0] [0x2 1 1 [10 0] [16 4]] (REQUEST)
s 1.001408772 _10_ RTR  --- 0 AODV 44 [0 0 0 0] ------- [10:255 16:255 30 16] [0x4 1 [10 4] 10.000000] (REPLY)
r 1.001408800 _7_ RTR  --- 0 AODV 48 [0 ffffffff 10 800] ------- [16:255 -1:255 30 0] [0x2 1 1 [10 0] [16 4]] (REQUEST)
s 1.001550341 _17_ RTR  --- 0 AODV 48 [0 ffffffff 10 800] ------- [17:255 -1:255 29 0] [0x2 2 1 [10 0] [16 4]] (REQUEST)
s 1.001823772 _10_ MAC  --- 0 ARP 86 [0 ffffffff a 806] ------- [REQUEST 10/10 0/16]
s 1.002289683 _5_ RTR  --- 0 AODV 48 [0 ffffffff 10 800] ------- [5:255 -1:255 29 0] [0x2 2 1 [10 0] [16 4]] (REQUEST)
r 1.002512055 _7_ MAC  --- 0 ARP 28 [0 ffffffff a 806] ------- [REQUEST 10/10 0/16]
r 1.002512070 _13_ MAC  --- 0 ARP 28 [0 ffffffff a 806] ------- [REQUEST 10/10 0/16]
r 1.002512116 _6_ MAC  --- 0 ARP 28 [0 ffffffff a 806] ------- [REQUEST 10/10 0/16]
r 1.002512139 _11_ MAC  --- 0 ARP 28 [0 ffffffff a 806] ------- [REQUEST 10/10 0/16]
r 1.002512183 _8_ MAC  --- 0 ARP 28 [0 ffffffff a 806] ------- [REQUEST 10/10 0/16]
r 1.002512200 _18_ MAC  --- 0 ARP 28 [0 ffffffff a 806] ------- [REQUEST 10/10 0/16]
r 1.002512201 _14_ MAC  --- 0 ARP 28 [0 ffffffff a 806] ------- [REQUEST 10/10 0/16]
r 1.002512463 _5_ MAC  --- 0 ARP 28 [0 ffffffff a 806] ------- [REQUEST 10/10 0/16]
r 1.002512515 _12_ MAC  --- 0 ARP 28 [0 ffffffff a 806] ------- [REQUEST 10/10 0/16]
r 1.002512545 _16_ MAC  --- 0 ARP 28 [0 ffffffff a 806] ------- [REQUEST 10/10 0/16]
r 1.002512566 _9_ MAC  --- 0 ARP 28 [0 ffffffff a 806] ------- [REQUEST 10/10 0/16]
s 1.002802463 _5_ MAC  --- 0 AODV 106 [0 ffffffff 5 800] ------- [5:255 -1:255 29 0] [0x2 2 1 [10 0] [16 4]] (REQUEST)
r 1.003650742 _8_ MAC  --- 0 AODV 48 [0 ffffffff 5 800] ------- [5:255 -1:255 29 0] [0x2 2 1 [10 0] [16 4]] (REQUEST)
r 1.003650761 _2_ MAC  --- 0 AODV 48 [0 ffffffff 5 800] ------- [5:255 -1:255 29 0] [0x2 2 1 [10 0] [16 4]] (REQUEST)
r 1.003650879 _17_ MAC  --- 0 AODV 48 [0 ffffffff 5 800] ------- [5:255 -1:255 29 0] [0x2 2 1 [10 0] [16 4]] (REQUEST)
r 1.003650917 _3_ MAC  --- 0 AODV 48 [0 ffffffff 5 800] ------- [5:255 -1:255 29 0] [0x2 2 1 [10 0] [16 4]] (REQUEST)
r 1.003650919 _16_ MAC  --- 0 AODV 48 [0 ffffffff 5 800] ------- [5:255 -1:255 29 0] [0x2 2 1 [10 0] [16 4]] (REQUEST)
r 1.003651013 _7_ MAC  --- 0 AODV 48 [0 ffffffff 5 800] ------- [5:255 -1:255 29 0] [0x2 2 1 [10 0] [16 4]] (REQUEST)
r 1.003651056 _11_ MAC  --- 0 AODV 48 [0 ffffffff 5 800] ------- [5:255 -1:255 29 0] [0x2 2 1 [10 0] [16 4]] (REQUEST)
r 1.003651144 _0_ MAC  --- 0 AODV 48 [0 ffffffff 5 800] ------- [5:255 -1:255 29 0] [0x2 2 1 [10 0] [16 4]] (REQUEST)
r 1.003651153 _10_ MAC  --- 0 AODV 48 [0 ffffffff 5 800] ------- [5:255 -1:255 29 0] [0x2 2 1 [10 0] [16 4]] (REQUEST)
r 1.003651206 _4_ MAC  --- 0 AODV 48 [0 ffffffff 5 800] ------- [5:255 -1:255 29 0] [0x2 2 1 [10 0] [16 4]] (REQUEST)
r 1.003651219 _18_ MAC  --- 0 AODV 48 [0 ffffffff 5 800] ------- [5:255 -1:255 29 0] [0x2 2 1 [10 0] [16 4]] (REQUEST)
r 1.003675742 _8_ RTR  --- 0 AODV 48 [0 ffffffff 5 800] ------- [5:255 -1:255 29 0] [0x2 2 1 [10 0] [16 4]] (REQUEST)
r 1.003675761 _2_ RTR  --- 0 AODV 48 [0 ffffffff 5 800] ------- [5:255 -1:255 29 0] [0x2 2 1 [10 0] [16 4]] (REQUEST)
r 1.003675879 _17_ RTR  --- 0 AODV 48 [0 ffffffff 5 800] ------- [5:255 -1:255 29 0] [0x2 2 1 [10 0] [16 4]] (REQUEST)
r 1.003675917 _3_ RTR  --- 0 AODV 48 [0 ffffffff 5 800] ------- [5:255 -1:255 29 0] [0x2 2 1 [10 0] [16 4]] (REQUEST)
r 1.003675919 _16_ RTR  --- 0 AODV 48 [0 ffffffff 5 800] ------- [5:255 -1:255 29 0] [0x2 2 1 [10 0] [16 4]] (REQUEST)
r 1.003676013 _7_ RTR  --- 0 AODV 48 [0 ffffffff 5 800] ------- [5:255 -1:255 29 0] [0x2 2 1 [10 0] [16 4]] (REQUEST)
r 1.003676056 _11_ RTR  --- 0 AODV 48 [0 ffffffff 5 800] ------- [5:255 -1:255 29 0] [0x2 2 1 [10 0] [16 4]] (REQUEST)
r 1.003676144 _0_ RTR  --- 0 AODV 48 [0 ffffffff 5 800] ------- [5:255 -1:255 29 0] [0x2 2 1 [10 0] [16 4]] (REQUEST)
r 1.003676153 _10_ RTR  --- 0 AODV 48 [0 ffffffff 5 800] ------- [5:255 -1:255 29 0] [0x2 2 1 [10 0] [16 4]] (REQUEST)
r 1.003676206 _4_ RTR  --- 0 AODV 48 [0 ffffffff 5 800] ------- [5:255 -1:255 29 0] [0x2 2 1 [10 0] [16 4]] (REQUEST)
r 1.003676219 _18_ RTR  --- 0 AODV 48 [0 ffffffff 5 800] ------- [5:255 -1:255 29 0] [0x2 2 1 [10 0] [16 4]] (REQUEST)
s 1.003754817 _7_ RTR  --- 0 AODV 48 [0 ffffffff 10 800] ------- [7:255 -1:255 29 0] [0x2 2 1 [10 0] [16 4]] (REQUEST)
s 1.003780879 _17_ MAC  --- 0 AODV 106 [0 ffffffff 11 800] ------- [17:255 -1:255 29 0] [0x2 2 1 [10 0] [16 4]] (REQUEST)
s 1.004538244 _2_ RTR  --- 0 AODV 48 [0 ffffffff 10 800] ------- [2:255 -1:255 29 0] [0x2 2 1 [10 0] [16 4]] (REQUEST)
r 1.004629173 _16_ MAC  --- 0 AODV 48 [0 ffffffff 11 800] ------- [17:255 -1:255 29 0] [0x2 2 1 [10 0] [16 4]] (REQUEST)
r 1.004629295 _5_ MAC  --- 0 AODV 48 [0 ffffffff 11 800] ------- [17:255 -1:255 29 0] [0x2 2 1 [10 0] [16 4]] (REQUEST)
r 1.004629307 _2_ MAC  --- 0 AODV 48 [0 ffffffff 11 800] ------- [17:255 -1:255 29 0] [0x2 2 1 [10 0] [16 4]] (REQUEST)
r 1.004629482 _8_ MAC  --- 0 AODV 48 [0 ffffffff 11 800] ------- [17:255 -1:255 29 0] [0x2 2 1 [10 0] [16 4]] (REQUEST)
r 1.004629597 _11_ MAC  --- 0 AODV 48 [0 ffffffff 11 800] ------- [17:255 -1:255 29 0] [0x2 2 1 [10 0] [16 4]] (REQUEST)
r 1.004629680 _3_ MAC  --- 0 AODV 48 [0 ffffffff 11 800] ------- [17:255 -1:255 29 0] [0x2 2 1 [10 0] [16 4]] (REQUEST)
r 1.004654173 _16_ RTR  --- 0 AODV 48 [0 ffffffff 11 800] ------- [17:255 -1:255 29 0] [0x2 2 1 [10 0] [16 4]] (REQUEST)
r 1.004654295 _5_ RTR  --- 0 AODV 48 [0 ffffffff 11 800] ------- [17:255 -1:255 29 0] [0x2 2 1 [10 0] [16 4]] (REQUEST)
r 1.004654307 _2_ RTR  --- 0 AODV 48 [0 ffffffff 11 800] ------- [17:255 -1:255 29 0] [0x2 2 1 [10 0] [16 4]] (REQUEST)
r 1.004654482 _8_ RTR  --- 0 AODV 48 [0 ffffffff 11 800] ------- [17:255 -1:255 29 0] [0x2 2 1 [10 0] [16 4]] (REQUEST)
r 1.004654597 _11_ RTR  --- 0 AODV 48 [0 ffffffff 11 800] ------- [17:255 -1:255 29 0] [0x2 2 1 [10 0] [16 4]] (REQUEST)
r 1.004654680 _3_ RTR  --- 0 AODV 48 [0 ffffffff 11 800] ------- [17:255 -1:255 29 0] [0x2 2 1 [10 0] [16 4]] (REQUEST)
s 1.004813999 _3_ RTR  --- 0 AODV 48 [0 ffffffff 5 800] ------- [3:255 -1:255 28 0] [0x2 3 1 [10 0] [16 4]] (REQUEST)
s 1.004919173 _16_ MAC  --- 0 RTS 44 [52e a 10 0] 
r 1.005271945 _10_ MAC  --- 0 RTS 44 [52e a 10 0] 
s 1.005281945 _10_ MAC  --- 0 CTS 38 [3f4 10 0 0] 
s 1.005424272 _18_ RTR  --- 0 AODV 48 [0 ffffffff 5 800] ------- [18:255 -1:255 28 0] [0x2 3 1 [10 0] [16 4]] (REQUEST)
r 1.005586717 _16_ MAC  --- 0 CTS 38 [3f4 10 0 0] 
s 1.005596717 _16_ MAC  --- 0 ARP 86 [13a a 10 806] ------- [REPLY 16/16 10/10]
s 1.005820194 _11_ RTR  --- 0 AODV 48 [0 ffffffff 10 800] ------- [11:255 -1:255 29 0] [0x2 2 1 [10 0] [16 4]] (REQUEST)
r 1.006285490 _10_ MAC  --- 0 ARP 28 [13a a 10 806] ------- [REPLY 16/16 10/10]
s 1.006295490 _10_ MAC  --- 0 ACK 38 [0 10 0 0] 
r 1.006600262 _16_ MAC  --- 0 ACK 38 [0 10 0 0] 
s 1.006719758 _18_ MAC  --- 0 AODV 106 [0 ffffffff 12 800] ------- [18:255 -1:255 28 0] [0x2 3 1 [10 0] [16 4]] (REQUEST)
r 1.007567999 _7_ MAC  --- 0 AODV 48 [0 ffffffff 12 800] ------- [18:255 -1:255 28 0] [0x2 3 1 [10 0] [16 4]] (REQUEST)
r 1.007568186 _10_ MAC  --- 0 AODV 48 [0 ffffffff 12 800] ------- [18:255 -1:255 28 0] [0x2 3 1 [10 0] [16 4]] (REQUEST)
r 1.007568221 _9_ MAC  --- 0 AODV 48 [0 ffffffff 12 800] ------- [18:255 -1:255 28 0] [0x2 3 1 [10 0] [16 4]] (REQUEST)
r 1.007568245 _4_ MAC  --- 0 AODV 48 [0 ffffffff 12 800] ------- [18:255 -1:255 28 0] [0x2 3 1 [10 0] [16 4]] (REQUEST)
r 1.007568253 _6_ MAC  --- 0 AODV 48 [0 ffffffff 12 800] ------- [18:255 -1:255 28 0] [0x2 3 1 [10 0] [16 4]] (REQUEST)
r 1.007568313 _8_ MAC  --- 0 AODV 48 [0 ffffffff 12 800] ------- [18:255 -1:255 28 0] [0x2 3 1 [10 0] [16 4]] (REQUEST)
r 1.007568319 _13_ MAC  --- 0 AODV 48 [0 ffffffff 12 800] ------- [18:255 -1:255 28 0] [0x2 3 1 [10 0] [16 4]] (REQUEST)
r 1.007568331 _12_ MAC  --- 0 AODV 48 [0 ffffffff 12 800] ------- [18:255 -1:255 28 0] [0x2 3 1 [10 0] [16 4]] (REQUEST)
r 1.007568503 _3_ MAC  --- 0 AODV 48 [0 ffffffff 12 800] ------- [18:255 -1:255 28 0] [0x2 3 1 [10 0] [16 4]] (REQUEST)
r 1.007568506 _11_ MAC  --- 0 AODV 48 [0 ffffffff 12 800] ------- [18:255 -1:255 28 0] [0x2 3 1 [10 0] [16 4]] (REQUEST)
r 1.007568515 _5_ MAC  --- 0 AODV 48 [0 ffffffff 12 800] ------- [18:255 -1:255 28 0] [0x2 3 1 [10 0] [16 4]] (REQUEST)
r 1.007568573 _15_ MAC  --- 0 AODV 48 [0 ffffffff 12 800] ------- [18:255 -1:255 28 0] [0x2 3 1 [10 0] [16 4]] (REQUEST)
r 1.007592999 _7_ RTR  --- 0 AODV 48 [0 ffffffff 12 800] ------- [18:255 -1:255 28 0] [0x2 3 1 [10 0] [16 4]] (REQUEST)
r 1.007593186 _10_ RTR  --- 0 AODV 48 [0 ffffffff 12 800] ------- [18:255 -1:255 28 0] [0x2 3 1 [10 0] [16 4]] (REQUEST)
r 1.007593221 _9_ RTR  --- 0 AODV 48 [0 ffffffff 12 800] ------- [18:255 -1:255 28 0] [0x2 3 1 [10 0] [16 4]] (REQUEST)
r 1.007593245 _4_ RTR  --- 0 AODV 48 [0 ffffffff 12 800] ------- [18:255 -1:255 28 0] [0x2 3 1 [10 0] [16 4]] (REQUEST)
r 1.007593253 _6_ RTR  --- 0 AODV 48 [0 ffffffff 12 800] ------- [18:255 -1:255 28 0] [0x2 3 1 [10 0] [16 4]] (REQUEST)
r 1.007593313 _8_ RTR  --- 0 AODV 48 [0 ffffffff 12 800] ------- [18:255 -1:255 28 0] [0x2 3 1 [10 0] [16 4]] (REQUEST)
r 1.007593319 _13_ RTR  --- 0 AODV 48 [0 ffffffff 12 800] ------- [18:255 -1:255 28 0] [0x2 3 1 [10 0] [16 4]] (REQUEST)
s 1.007593319 _13_ RTR  --- 0 AODV 44 [0 0 0 0] ------- [13:255 16:255 30 0] [0x4 1 [10 0] 10.000000] (REPLY)
r 1.007593331 _12_ RTR  --- 0 AODV 48 [0 ffffffff 12 800] ------- [18:255 -1:255 28 0] [0x2 3 1 [10 0] [16 4]] (REQUEST)
r 1.007593503 _3_ RTR  --- 0 AODV 48 [0 ffffffff 12 800] ------- [18:255 -1:255 28 0] [0x2 3 1 [10 0] [16 4]] (REQUEST)
r 1.007593506 _11_ RTR  --- 0 AODV 48 [0 ffffffff 12 800] ------- [18:255 -1:255 28 0] [0x2 3 1 [10 0] [16 4]] (REQUEST)
r 1.007593515 _5_ RTR  --- 0 AODV 48 [0 ffffffff 12 800] ------- [18:255 -1:255 28 0] [0x2 3 1 [10 0] [16 4]] (REQUEST)
r 1.007593573 _15_ RTR  --- 0 AODV 48 [0 ffffffff 12 800] ------- [18:255 -1:255 28 0] [0x2 3 1 [10 0] [16 4]] (REQUEST)
s 1.007798506 _11_ MAC  --- 0 AODV 106 [0 ffffffff b 800] ------- [11:255 -1:255 29 0] [0x2 2 1 [10 0] [16 4]] (REQUEST)
s 1.007912773 _4_ RTR  --- 0 AODV 48 [0 ffffffff 5 800] ------- [4:255 -1:255 28 0] [0x2 3 1 [10 0] [16 4]] (REQUEST)
r 1.008646815 _14_ MAC  --- 0 AODV 48 [0 ffffffff b 800] ------- [11:255 -1:255 29 0] [0x2 2 1 [10 0] [16 4]] (REQUEST)
r 1.008646873 _10_ MAC  --- 0 AODV 48 [0 ffffffff b 800] ------- [11:255 -1:255 29 0] [0x2 2 1 [10 0] [16 4]] (REQUEST)
r 1.008646884 _8_ MAC  --- 0 AODV 48 [0 ffffffff b 800] ------- [11:255 -1:255 29 0] [0x2 2 1 [10 0] [16 4]] (REQUEST)
r 1.008646966 _16_ MAC  --- 0 AODV 48 [0 ffffffff b 800] ------- [11:255 -1:255 29 0] [0x2 2 1 [10 0] [16 4]] (REQUEST)
r 1.008647036 _7_ MAC  --- 0 AODV 48 [0 ffffffff b 800] ------- [11:255 -1:255 29 0] [0x2 2 1 [10 0] [16 4]] (REQUEST)
r 1.008647081 _13_ MAC  --- 0 AODV 48 [0 ffffffff b 800] ------- [11:255 -1:255 29 0] [0x2 2 1 [10 0] [16 4]] (REQUEST)
r 1.008647100 _5_ MAC  --- 0 AODV 48 [0 ffffffff b 800] ------- [11:255 -1:255 29 0] [0x2 2 1 [10 0] [16 4]] (REQUEST)
r 1.008647175 _6_ MAC  --- 0 AODV 48 [0 ffffffff b 800] ------- [11:255 -1:255 29 0] [0x2 2 1 [10 0] [16 4]] (REQUEST)
r 1.008647225 _17_ MAC  --- 0 AODV 48 [0 ffffffff b 800] ------- [11:255 -1:255 29 0] [0x2 2 1 [10 0] [16 4]] (REQUEST)
r 1.008647255 _18_ MAC  --- 0 AODV 48 [0 ffffffff b 800] ------- [11:255 -1:255 29 0] [0x2 2 1 [10 0] [16 4]] (REQUEST)
r 1.008671815 _14_ RTR  --- 0 AODV 48 [0 ffffffff b 800] ------- [11:255 -1:255 29 0] [0x2 2 1 [10 0] [16 4]] (REQUEST)
r 1.008671873 _10_ RTR  --- 0 AODV 48 [0 ffffffff b 800] ------- [11:255 -1:255 29 0] [0x2 2 1 [10 0] [16 4]] (REQUEST)
r 1.008671884 _8_ RTR  --- 0 AODV 48 [0 ffffffff b 800] ------- [11:255 -1:255 29 0] [0x2 2 1 [10 0] [16 4]] (REQUEST)
r 1.008671966 _16_ RTR  --- 0 AODV 48 [0 ffffffff b 800] ------- [11:255 -1:255 29 0] [0x2 2 1 [10 0] [16 4]] (REQUEST)
r 1.008672036 _7_ RTR  --- 0 AODV 48 [0 ffffffff b 800] ------- [11:255 -1:255 29 0] [0x2 2 1 [10 0] [16 4]] (REQUEST)
r 1.008672081 _13_ RTR  --- 0 AODV 48 [0 ffffffff b 800] ------- [11:255 -1:255 29 0] [0x2 2 1 [10 0] [16 4]] (REQUEST)
r 1.008672100 _5_ RTR  --- 0 AODV 48 [0 ffffffff b 800] ------- [11:255 -1:255 29 0] [0x2 2 1 [10 0] [16 4]] (REQUEST)
r 1.008672175 _6_ RTR  --- 0 AODV 48 [0 ffffffff b 800] ------- [11:255 -1:255 29 0] [0x2 2 1 [10 0] [16 4]] (REQUEST)
r 1.008672225 _17_ RTR  --- 0 AODV 48 [0 ffffffff b 800] ------- [11:255 -1:255 29 0] [0x2 2 1 [10 0] [16 4]] (REQUEST)
r 1.008672255 _18_ RTR  --- 0 AODV 48 [0 ffffffff b 800] ------- [11:255 -1:255 29 0] [0x2 2 1 [10 0] [16 4]] (REQUEST)
s 1.008797036 _7_ MAC  --- 0 AODV 106 [0 ffffffff 7 800] ------- [7:255 -1:255 29 0] [0x2 2 1 [10 0] [16 4]] (REQUEST)
s 1.009400046 _8_ RTR  --- 0 AODV 48 [0 ffffffff 10 800] ------- [8:255 -1:255 29 0] [0x2 2 1 [10 0] [16 4]] (REQUEST)
s 1.009573492 _14_ RTR  --- 0 AODV 48 [0 ffffffff 10 800] ------- [14:255 -1:255 29 0] [0x2 2 1 [10 0] [16 4]] (REQUEST)
r 1.009645277 _18_ MAC  --- 0 AODV 48 [0 ffffffff 7 800] ------- [7:255 -1:255 29 0] [0x2 2 1 [10 0] [16 4]] (REQUEST)
r 1.009645318 _10_ MAC  --- 0 AODV 48 [0 ffffffff 7 800] ------- [7:255 -1:255 29 0] [0x2 2 1 [10 0] [16 4]] (REQUEST)
r 1.009645355 _8_ MAC  --- 0 AODV 48 [0 ffffffff 7 800] ------- [7:255 -1:255 29 0] [0x2 2 1 [10 0] [16 4]] (REQUEST)
r 1.009645554 _6_ MAC  --- 0 AODV 48 [0 ffffffff 7 800] ------- [7:255 -1:255 29 0] [0x2 2 1 [10 0] [16 4]] (REQUEST)
r 1.009645565 _11_ MAC  --- 0 AODV 48 [0 ffffffff 7 800] ------- [7:255 -1:255 29 0] [0x2 2 1 [10 0] [16 4]] (REQUEST)
r 1.009645565 _13_ MAC  --- 0 AODV 48 [0 ffffffff 7 800] ------- [7:255 -1:255 29 0] [0x2 2 1 [10 0] [16 4]] (REQUEST)
r 1.009645586 _5_ MAC  --- 0 AODV 48 [0 ffffffff 7 800] ------- [7:255 -1:255 29 0] [0x2 2 1 [10 0] [16 4]] (REQUEST)
r 1.009645600 _4_ MAC  --- 0 AODV 48 [0 ffffffff 7 800] ------- [7:255 -1:255 29 0] [0x2 2 1 [10 0] [16 4]] (REQUEST)
r 1.009645699 _3_ MAC  --- 0 AODV 48 [0 ffffffff 7 800] ------- [7:255 -1:255 29 0] [0x2 2 1 [10 0] [16 4]] (REQUEST)
r 1.009645729 _14_ MAC  --- 0 AODV 48 [0 ffffffff 7 800] ------- [7:255 -1:255 29 0] [0x2 2 1 [10 0] [16 4]] (REQUEST)
r 1.009645734 _9_ MAC  --- 0 AODV 48 [0 ffffffff 7 800] ------- [7:255 -1:255 29 0] [0x2 2 1 [10 0] [16 4]] (REQUEST)
r 1.009645794 _12_ MAC  --- 0 AODV 48 [0 ffffffff 7 800] ------- [7:255 -1:255 29 0] [0x2 2 1 [10 0] [16 4]] (REQUEST)
r 1.009645835 _16_ MAC  --- 0 AODV 48 [0 ffffffff 7 800] ------- [7:255 -1:255 29 0] [0x2 2 1 [10 0] [16 4]] (REQUEST)
r 1.009645848 _2_ MAC  --- 0 AODV 48 [0 ffffffff 7 800] ------- [7:255 -1:255 29 0] [0x2 2 1 [10 0] [16 4]] (REQUEST)
r 1.009670277 _18_ RTR  --- 0 AODV 48 [0 ffffffff 7 800] ------- [7:255 -1:255 29 0] [0x2 2 1 [10 0] [16 4]] (REQUEST)
r 1.009670318 _10_ RTR  --- 0 AODV 48 [0 ffffffff 7 800] ------- [7:255 -1:255 29 0] [0x2 2 1 [10 0] [16 4]] (REQUEST)
r 1.009670355 _8_ RTR  --- 0 AODV 48 [0 ffffffff 7 800] ------- [7:255 -1:255 29 0] [0x2 2 1 [10 0] [16 4]] (REQUEST)
r 1.009670554 _6_ RTR  --- 0 AODV 48 [0 ffffffff 7 800] ------- [7:255 -1:255 29 0] [0x2 2 1 [10 0] [16 4]] (REQUEST)
r 1.009670565 _11_ RTR  --- 0 AODV 48 [0 ffffffff 7 800] ------- [7:255 -1:255 29 0] [0x2 2 1 [10 0] [16 4]] (REQUEST)
r 1.009670565 _13_ RTR  --- 0 AODV 48 [0 ffffffff 7 800] ------- [7:255 -1:255 29 0] [0x2 2 1 [10 0] [16 4]] (REQUEST)
r 1.009670586 _5_ RTR  --- 0 AODV 48 [0 ffffffff 7 800] ------- [7:255 -1:255 29 0] [0x2 2 1 [10 0] [16 4]] (REQUEST)
r 1.009670600 _4_ RTR  --- 0 AODV 48 [0 ffffffff 7 800] ------- [7:255 -1:255 29 0] [0x2 2 1 [10 0] [16 4]] (REQUEST)
r 1.009670699 _3_ RTR  --- 0 AODV 48 [0 ffffffff 7 800] ------- [7:255 -1:255 29 0] [0x2 2 1 [10 0] [16 4]] (REQUEST)
r 1.009670729 _14_ RTR  --- 0 AODV 48 [0 ffffffff 7 800] ------- [7:255 -1:255 29 0] [0x2 2 1 [10 0] [16 4]] (REQUEST)
r 1.009670734 _9_ RTR  --- 0 AODV 48 [0 ffffffff 7 800] ------- [7:255 -1:255 29 0] [0x2 2 1 [10 0] [16 4]] (REQUEST)
r 1.009670794 _12_ RTR  --- 0 AODV 48 [0 ffffffff 7 800] ------- [7:255 -1:255 29 0] [0x2 2 1 [10 0] [16 4]] (REQUEST)
r 1.009670835 _16_ RTR  --- 0 AODV 48 [0 ffffffff 7 800] ------- [7:255 -1:255 29 0] [0x2 2 1 [10 0] [16 4]] (REQUEST)
r 1.009670848 _2_ RTR  --- 0 AODV 48 [0 ffffffff 7 800] ------- [7:255 -1:255 29 0] [0x2 2 1 [10 0] [16 4]] (REQUEST)
s 1.009715699 _3_ MAC  --- 0 AODV 106 [0 ffffffff 3 800] ------- [3:255 -1:255 28 0] [0x2 3 1 [10 0] [16 4]] (REQUEST)
s 1.009764848 _6_ RTR  --- 0 AODV 48 [0 ffffffff 12 800] ------- [6:255 -1:255 27 0] [0x2 4 1 [10 0] [16 4]] (REQUEST)
s 1.010005587 _12_ RTR  --- 0 AODV 48 [0 ffffffff 12 800] ------- [12:255 -1:255 27 0] [0x2 4 1 [10 0] [16 4]] (REQUEST)
r 1.010564003 _0_ MAC  --- 0 AODV 48 [0 ffffffff 3 800] ------- [3:255 -1:255 28 0] [0x2 3 1 [10 0] [16 4]] (REQUEST)
r 1.010564111 _2_ MAC  --- 0 AODV 48 [0 ffffffff 3 800] ------- [3:255 -1:255 28 0] [0x2 3 1 [10 0] [16 4]] (REQUEST)
r 1.010564139 _4_ MAC  --- 0 AODV 48 [0 ffffffff 3 800] ------- [3:255 -1:255 28 0] [0x2 3 1 [10 0] [16 4]] (REQUEST)
r 1.010564153 _5_ MAC  --- 0 AODV 48 [0 ffffffff 3 800] ------- [3:255 -1:255 28 0] [0x2 3 1 [10 0] [16 4]] (REQUEST)
r 1.010564299 _8_ MAC  --- 0 AODV 48 [0 ffffffff 3 800] ------- [3:255 -1:255 28 0] [0x2 3 1 [10 0] [16 4]] (REQUEST)
r 1.010564363 _7_ MAC  --- 0 AODV 48 [0 ffffffff 3 800] ------- [3:255 -1:255 28 0] [0x2 3 1 [10 0] [16 4]] (REQUEST)
r 1.010564374 _1_ MAC  --- 0 AODV 48 [0 ffffffff 3 800] ------- [3:255 -1:255 28 0] [0x2 3 1 [10 0] [16 4]] (REQUEST)
r 1.010564445 _18_ MAC  --- 0 AODV 48 [0 ffffffff 3 800] ------- [3:255 -1:255 28 0] [0x2 3 1 [10 0] [16 4]] (REQUEST)
r 1.010564465 _19_ MAC  --- 0 AODV 48 [0 ffffffff 3 800] ------- [3:255 -1:255 28 0] [0x2 3 1 [10 0] [16 4]] (REQUEST)
r 1.010564500 _17_ MAC  --- 0 AODV 48 [0 ffffffff 3 800] ------- [3:255 -1:255 28 0] [0x2 3 1 [10 0] [16 4]] (REQUEST)
r 1.010589003 _0_ RTR  --- 0 AODV 48 [0 ffffffff 3 800] ------- [3:255 -1:255 28 0] [0x2 3 1 [10 0] [16 4]] (REQUEST)
r 1.010589111 _2_ RTR  --- 0 AODV 48 [0 ffffffff 3 800] ------- [3:255 -1:255 28 0] [0x2 3 1 [10 0] [16 4]] (REQUEST)
r 1.010589139 _4_ RTR  --- 0 AODV 48 [0 ffffffff 3 800] ------- [3:255 -1:255 28 0] [0x2 3 1 [10 0] [16 4]] (REQUEST)
r 1.010589153 _5_ RTR  --- 0 AODV 48 [0 ffffffff 3 800] ------- [3:255 -1:255 28 0] [0x2 3 1 [10 0] [16 4]] (REQUEST)
r 1.010589299 _8_ RTR  --- 0 AODV 48 [0 ffffffff 3 800] ------- [3:255 -1:255 28 0] [0x2 3 1 [10 0] [16 4]] (REQUEST)
r 1.010589363 _7_ RTR  --- 0 AODV 48 [0 ffffffff 3 800] ------- [3:255 -1:255 28 0] [0x2 3 1 [10 0] [16 4]] (REQUEST)
r 1.010589374 _1_ RTR  --- 0 AODV 48 [0 ffffffff 3 800] ------- [3:255 -1:255 28 0] [0x2 3 1 [10 0] [16 4]] (REQUEST)
s 1.010589374 _1_ RTR  --- 0 AODV 44 [0 0 0 0] ------- [1:255 16:255 30 0] [0x4 1 [10 0] 10.000000] (REPLY)
r 1.010589445 _18_ RTR  --- 0 AODV 48 [0 ffffffff 3 800] ------- [3:255 -1:255 28 0] [0x2 3 1 [10 0] [16 4]] (REQUEST)
r 1.010589465 _19_ RTR  --- 0 AODV 48 [0 ffffffff 3 800] ------- [3:255 -1:255 28 0] [0x2 3 1 [10 0] [16 4]] (REQUEST)
r 1.010589500 _17_ RTR  --- 0 AODV 48 [0 ffffffff 3 800] ------- [3:255 -1:255 28 0] [0x2 3 1 [10 0] [16 4]] (REQUEST)
s 1.010674111 _2_ MAC  --- 0 AODV 106 [0 ffffffff 2 800] ------- [2:255 -1:255 29 0] [0x2 2 1 [10 0] [16 4]] (REQUEST)
s 1.010674299 _8_ MAC  --- 0 AODV 106 [0 ffffffff 8 800] ------- [8:255 -1:255 29 0] [0x2 2 1 [10 0] [16 4]] (REQUEST)
D 1.010674578 _5_ MAC  COL 0 AODV 106 [0 ffffffff 2 800] ------- [2:255 -1:255 29 0] [0x2 2 1 [10 0] [16 4]] (REQUEST)
D 1.010674790 _16_ MAC  COL 0 AODV 106 [0 ffffffff 2 800] ------- [2:255 -1:255 29 0] [0x2 2 1 [10 0] [16 4]] (REQUEST)
D 1.010674898 _3_ MAC  COL 0 AODV 106 [0 ffffffff 2 800] ------- [2:255 -1:255 29 0] [0x2 2 1 [10 0] [16 4]] (REQUEST)
D 1.010674902 _17_ MAC  COL 0 AODV 106 [0 ffffffff 2 800] ------- [2:255 -1:255 29 0] [0x2 2 1 [10 0] [16 4]] (REQUEST)
D 1.010675017 _4_ MAC  COL 0 AODV 106 [0 ffffffff 2 800] ------- [2:255 -1:255 29 0] [0x2 2 1 [10 0] [16 4]] (REQUEST)
D 1.010675098 _18_ MAC  COL 0 AODV 106 [0 ffffffff 8 800] ------- [8:255 -1:255 29 0] [0x2 2 1 [10 0] [16 4]] (REQUEST)
D 1.010675180 _0_ MAC  COL 0 AODV 106 [0 ffffffff 2 800] ------- [2:255 -1:255 29 0] [0x2 2 1 [10 0] [16 4]] (REQUEST)
D 1.010675419 _6_ MAC  COL 0 AODV 106 [0 ffffffff 8 800] ------- [8:255 -1:255 29 0] [0x2 2 1 [10 0] [16 4]] (REQUEST)
D 1.011522578 _5_ MAC  COL 0 AODV 106 [0 ffffffff 8 800] ------- [8:255 -1:255 29 0] [0x2 2 1 [10 0] [16 4]] (REQUEST)
r 1.011522618 _7_ MAC  --- 0 AODV 48 [0 ffffffff 8 800] ------- [8:255 -1:255 29 0] [0x2 2 1 [10 0] [16 4]] (REQUEST)
r 1.011522676 _11_ MAC  --- 0 AODV 48 [0 ffffffff 8 800] ------- [8:255 -1:255 29 0] [0x2 2 1 [10 0] [16 4]] (REQUEST)
r 1.011522710 _10_ MAC  --- 0 AODV 48 [0 ffffffff 8 800] ------- [8:255 -1:255 29 0] [0x2 2 1 [10 0] [16 4]] (REQUEST)
D 1.011522790 _16_ MAC  COL 0 AODV 106 [0 ffffffff 8 800] ------- [8:255 -1:255 29 0] [0x2 2 1 [10 0] [16 4]] (REQUEST)
D 1.011522898 _3_ MAC  COL 0 AODV 106 [0 ffffffff 8 800] ------- [8:255 -1:255 29 0] [0x2 2 1 [10 0] [16 4]] (REQUEST)
D 1.011522902 _17_ MAC  COL 0 AODV 106 [0 ffffffff 8 800] ------- [8:255 -1:255 29 0] [0x2 2 1 [10 0] [16 4]] (REQUEST)
r 1.011522954 _14_ MAC  --- 0 AODV 48 [0 ffffffff 8 800] ------- [8:255 -1:255 29 0] [0x2 2 1 [10 0] [16 4]] (REQUEST)
r 1.011523007 _13_ MAC  --- 0 AODV 48 [0 ffffffff 8 800] ------- [8:255 -1:255 29 0] [0x2 2 1 [10 0] [16 4]] (REQUEST)
D 1.011523017 _4_ MAC  COL 0 AODV 106 [0 ffffffff 8 800] ------- [8:255 -1:255 29 0] [0x2 2 1 [10 0] [16 4]] (REQUEST)
r 1.011547618 _7_ RTR  --- 0 AODV 48 [0 ffffffff 8 800] ------- [8:255 -1:255 29 0] [0x2 2 1 [10 0] [16 4]] (REQUEST)
r 1.011547676 _11_ RTR  --- 0 AODV 48 [0 ffffffff 8 800] ------- [8:255 -1:255 29 0] [0x2 2 1 [10 0] [16 4]] (REQUEST)
r 1.011547710 _10_ RTR  --- 0 AODV 48 [0 ffffffff 8 800] ------- [8:255 -1:255 29 0] [0x2 2 1 [10 0] [16 4]] (REQUEST)
r 1.011547954 _14_ RTR  --- 0 AODV 48 [0 ffffffff 8 800] ------- [8:255 -1:255 29 0] [0x2 2 1 [10 0] [16 4]] (REQUEST)
r 1.011548007 _13_ RTR  --- 0 AODV 48 [0 ffffffff 8 800] ------- [8:255 -1:255 29 0] [0x2 2 1 [10 0] [16 4]] (REQUEST)
s 1.011977392 _13_ MAC  --- 0 ARP 86 [0 ffffffff d 806] ------- [REQUEST 13/13 0/0]
s 1.012273421 _0_ RTR  --- 0 AODV 48 [0 ffffffff 5 800] ------- [0:255 -1:255 28 0] [0x2 3 1 [10 0] [16 4]] (REQUEST)
r 1.012665516 _6_ MAC  --- 0 ARP 28 [0 ffffffff d 806] ------- [REQUEST 13/13 0/0]
r 1.012665690 _10_ MAC  --- 0 ARP 28 [0 ffffffff d 806] ------- [REQUEST 13/13 0/0]
r 1.012665845 _14_ MAC  --- 0 ARP 28 [0 ffffffff d 806] ------- [REQUEST 13/13 0/0]
r 1.012665922 _7_ MAC  --- 0 ARP 28 [0 ffffffff d 806] ------- [REQUEST 13/13 0/0]
r 1.012665953 _18_ MAC  --- 0 ARP 28 [0 ffffffff d 806] ------- [REQUEST 13/13 0/0]
r 1.012665967 _11_ MAC  --- 0 ARP 28 [0 ffffffff d 806] ------- [REQUEST 13/13 0/0]
r 1.012665985 _12_ MAC  --- 0 ARP 28 [0 ffffffff d 806] ------- [REQUEST 13/13 0/0]
r 1.012666101 _8_ MAC  --- 0 ARP 28 [0 ffffffff d 806] ------- [REQUEST 13/13 0/0]
r 1.012666146 _9_ MAC  --- 0 ARP 28 [0 ffffffff d 806] ------- [REQUEST 13/13 0/0]
s 1.012755690 _10_ MAC  --- 0 RTS 44 [5ae 10 a 0] 
r 1.013108462 _16_ MAC  --- 0 RTS 44 [5ae 10 a 0] 
s 1.013118462 _16_ MAC  --- 0 CTS 38 [474 a 0 0] 
r 1.013423234 _10_ MAC  --- 0 CTS 38 [474 a 0 0] 
s 1.013433234 _10_ MAC  --- 0 AODV 102 [13a 10 a 800] ------- [10:255 16:255 30 16] [0x4 1 [10 4] 10.000000] (REPLY)
r 1.014250007 _16_ MAC  --- 0 AODV 44 [13a 10 a 800] ------- [10:255 16:255 30 16] [0x4 1 [10 4] 10.000000] (REPLY)
s 1.014260007 _16_ MAC  --- 0 ACK 38 [0 a 0 0] 
r 1.014275007 _16_ RTR  --- 0 AODV 44 [13a 10 a 800] ------- [10:255 16:255 30 16] [0x4 1 [10 4] 10.000000] (REPLY)
s 1.014275007 _16_ RTR  --- 0 cbr 1020 [0 0 0 0] ------- [16:0 10:0 30 10] [0] 0 0
r 1.014564779 _10_ MAC  --- 0 ACK 38 [0 a 0 0] 
s 1.014794738 _14_ MAC  --- 0 AODV 106 [0 ffffffff e 800] ------- [14:255 -1:255 29 0] [0x2 2 1 [10 0] [16 4]] (REQUEST)
r 1.015643047 _11_ MAC  --- 0 AODV 48 [0 ffffffff e 800] ------- [14:255 -1:255 29 0] [0x2 2 1 [10 0] [16 4]] (REQUEST)
r 1.015643167 _10_ MAC  --- 0 AODV 48 [0 ffffffff e 800] ------- [14:255 -1:255 29 0] [0x2 2 1 [10 0] [16 4]] (REQUEST)
r 1.015643191 _13_ MAC  --- 0 AODV 48 [0 ffffffff e 800] ------- [14:255 -1:255 29 0] [0x2 2 1 [10 0] [16 4]] (REQUEST)
r 1.015643312 _6_ MAC  --- 0 AODV 48 [0 ffffffff e 800] ------- [14:255 -1:255 29 0] [0x2 2 1 [10 0] [16 4]] (REQUEST)
r 1.015643394 _8_ MAC  --- 0 AODV 48 [0 ffffffff e 800] ------- [14:255 -1:255 29 0] [0x2 2 1 [10 0] [16 4]] (REQUEST)
r 1.015643431 _7_ MAC  --- 0 AODV 48 [0 ffffffff e 800] ------- [14:255 -1:255 29 0] [0x2 2 1 [10 0] [16 4]] (REQUEST)
r 1.015643470 _16_ MAC  --- 0 AODV 48 [0 ffffffff e 800] ------- [14:255 -1:255 29 0] [0x2 2 1 [10 0] [16 4]] (REQUEST)
r 1.015668047 _11_ RTR  --- 0 AODV 48 [0 ffffffff e 800] ------- [14:255 -1:255 29 0] [0x2 2 1 [10 0] [16 4]] (REQUEST)
r 1.015668167 _10_ RTR  --- 0 AODV 48 [0 ffffffff e 800] ------- [14:255 -1:255 29 0] [0x2 2 1 [10 0] [16 4]] (REQUEST)
r 1.015668191 _13_ RTR  --- 0 AODV 48 [0 ffffffff e 800] ------- [14:255 -1:255 29 0] [0x2 2 1 [10 0] [16 4]] (REQUEST)
r 1.015668312 _6_ RTR  --- 0 AODV 48 [0 ffffffff e 800] ------- [14:255 -1:255 29 0] [0x2 2 1 [10 0] [16 4]] (REQUEST)
r 1.015668394 _8_ RTR  --- 0 AODV 48 [0 ffffffff e 800] ------- [14:255 -1:255 29 0] [0x2 2 1 [10 0] [16 4]] (REQUEST)
r 1.015668431 _7_ RTR  --- 0 AODV 48 [0 ffffffff e 800] ------- [14:255 -1:255 29 0] [0x2 2 1 [10 0] [16 4]] (REQUEST)
r 1.015668470 _16_ RTR  --- 0 AODV 48 [0 ffffffff e 800] ------- [14:255 -1:255 29 0] [0x2 2 1 [10 0] [16 4]] (REQUEST)
s 1.015713312 _6_ MAC  --- 0 AODV 106 [0 ffffffff 6 800] ------- [6:255 -1:255 27 0] [0x2 4 1 [10 0] [16 4]] (REQUEST)
s 1.015991473 _9_ RTR  --- 0 AODV 48 [0 ffffffff 12 800] ------- [9:255 -1:255 27 0] [0x2 4 1 [10 0] [16 4]] (REQUEST)
s 1.016104639 _15_ RTR  --- 0 AODV 48 [0 ffffffff 12 800] ------- [15:255 -1:255 27 0] [0x2 4 1 [10 0] [16 4]] (REQUEST)
r 1.016561436 _13_ MAC  --- 0 AODV 48 [0 ffffffff 6 800] ------- [6:255 -1:255 27 0] [0x2 4 1 [10 0] [16 4]] (REQUEST)
r 1.016561657 _10_ MAC  --- 0 AODV 48 [0 ffffffff 6 800] ------- [6:255 -1:255 27 0] [0x2 4 1 [10 0] [16 4]] (REQUEST)
r 1.016561783 _12_ MAC  --- 0 AODV 48 [0 ffffffff 6 800] ------- [6:255 -1:255 27 0] [0x2 4 1 [10 0] [16 4]] (REQUEST)
r 1.016561808 _18_ MAC  --- 0 AODV 48 [0 ffffffff 6 800] ------- [6:255 -1:255 27 0] [0x2 4 1 [10 0] [16 4]] (REQUEST)
r 1.016561831 _7_ MAC  --- 0 AODV 48 [0 ffffffff 6 800] ------- [6:255 -1:255 27 0] [0x2 4 1 [10 0] [16 4]] (REQUEST)
r 1.016561887 _14_ MAC  --- 0 AODV 48 [0 ffffffff 6 800] ------- [6:255 -1:255 27 0] [0x2 4 1 [10 0] [16 4]] (REQUEST)
r 1.016561947 _9_ MAC  --- 0 AODV 48 [0 ffffffff 6 800] ------- [6:255 -1:255 27 0] [0x2 4 1 [10 0] [16 4]] (REQUEST)
r 1.016561981 _11_ MAC  --- 0 AODV 48 [0 ffffffff 6 800] ------- [6:255 -1:255 27 0] [0x2 4 1 [10 0] [16 4]] (REQUEST)
r 1.016562058 _8_ MAC  --- 0 AODV 48 [0 ffffffff 6 800] ------- [6:255 -1:255 27 0] [0x2 4 1 [10 0] [16 4]] (REQUEST)